y_center,y_center_mm,D32_m,D32_um,Ux_mean,n_events,n_phys_sum,frac_events_d_lt_2um,frac_mass_d_lt_2um,n_events_user0,mass_fraction_user0,D32_um_user0,Ux_mean_user0,n_events_user1,mass_fraction_user1,D32_um_user1,Ux_mean_user1,n_events_user2,mass_fraction_user2,D32_um_user2,Ux_mean_user2,n_events_m10,mass_fraction_m10,n_events_m20,mass_fraction_m20,n_events_m2,mass_fraction_m2
0.00025,0.25,,,,0,,,,0,,,,0,,,,0,,,,0,,0,,0,
0.00075,0.75,1.0978064244359885e-05,10.978064244359885,99.60438560693076,731,31847.3543494396,0.006839945280437756,7.678754144514277e-05,0,,,,0,,,,731,1.0,10.978064244359885,99.60438560693076,0,,731,1.0,0,
0.00125,1.25,1.1326082191821016e-05,11.326082191821017,97.05988554784138,1671,68347.99579566732,0.010771992818671455,5.82307772658602e-05,0,,,,0,,,,1671,1.0,11.326082191821017,97.05988554784138,0,,1671,1.0,0,
0.00175,1.75,1.1292724926506049e-05,11.292724926506049,92.63697552739268,2871,105850.9034668862,0.018808777429467086,0.00010101862134474146,0,,,,0,,,,2871,1.0,11.292724926506049,92.63697552739268,0,,2871,1.0,0,
0.0022500000000000003,2.2500000000000004,1.1693157138531553e-05,11.693157138531554,85.64197412493955,3789,130671.94332892157,0.017682765901293217,0.00010989143593163119,0,,,,0,,,,3789,1.0,11.693157138531554,85.64197412493955,0,,3789,1.0,0,
0.00275,2.75,1.224256948386033e-05,12.24256948386033,81.95419213158556,4920,151084.01549474092,0.015447154471544716,8.100684640720019e-05,0,,,,6,0.008810264073261147,18.848500663088767,86.19280999445938,4914,0.9911897359267388,12.204549570653903,81.9486234928793,6,0.008810264073261147,4914,0.9911897359267388,0,
0.0032500000000000003,3.2500000000000004,1.3141706916345753e-05,13.141706916345752,78.60216210734808,6192,163669.1583493142,0.014050387596899225,4.065891958783041e-05,0,,,,51,0.04958380739960851,19.722369763601446,82.00390222225751,6141,0.9504161926003915,12.91685663859311,78.57336697467834,51,0.04958380739960851,6141,0.9504161926003915,0,
0.00375,3.75,1.4698080037248622e-05,14.698080037248623,77.24039650991094,7865,181037.74315859308,0.011697393515575335,3.0613959506751985e-05,0,,,,361,0.23011534442534726,20.748551953207468,77.87369648881236,7504,0.7698846555746527,13.5196923872877,77.20865990319092,361,0.23011534442534726,7504,0.7698846555746527,0,
0.00425,4.25,1.7076456599399837e-05,17.076456599399837,76.54700755279018,9822,203152.71502818202,0.007228670331907962,1.0310741020709684e-05,0,,,,1426,0.4956146016742601,21.65399321576771,73.95929685998904,8396,0.5043853983257398,14.139433133052844,76.98330331345502,1426,0.4956146016742601,8396,0.5043853983257398,0,
0.004750000000000001,4.750000000000001,1.9607845665677215e-05,19.607845665677214,75.72714318364069,12411,234307.7391691967,0.004028684231729917,4.1121113008534805e-06,0,,,,4159,0.7337244116801076,22.455309096429296,70.67656120203576,8252,0.26627558831989234,14.53063375619578,78.11213427115334,4159,0.7337244116801076,8252,0.26627558831989234,0,
0.0052499999999999995,5.249999999999999,2.218380956871123e-05,22.18380956871123,73.41092147595789,18934,311855.71494720835,0.0017428963768881377,1.062960127654925e-06,0,,,,11757,0.8920677402334648,23.5265281913617,68.59594562724754,7177,0.10793225976653527,15.07350745959612,80.19175581524331,11757,0.8920677402334648,7177,0.10793225976653527,0,
0.00575,5.75,2.4235037807477232e-05,24.235037807477234,71.86311281662158,26759,369174.2193802441,0.00048581785567472627,1.7405905921608428e-07,0,,,,21177,0.9447148869247292,25.032687964716235,68.227725378217,5582,0.05528511307527106,15.69119122644756,82.18871006464174,21177,0.9447148869247292,5582,0.05528511307527106,0,
0.00625,6.25,2.651648842621613e-05,26.51648842621613,71.35401484263488,29700,330739.9209720391,0.0003367003367003367,5.935861538519926e-08,0,,,,25847,0.9639387976886759,27.113245637887527,68.58365605833802,3853,0.03606120231132416,16.69450820095143,83.39315680733,25847,0.9639387976886759,3853,0.03606120231132416,0,
0.006750000000000001,6.750000000000001,2.9297371424027945e-05,29.297371424027943,70.50134234556464,32038,279125.81399430294,9.363880392034459e-05,2.3542801089320366e-08,0,,,,29727,0.9745978392596174,29.731276247961272,68.6478528383642,2311,0.02540216074038266,18.78117840532365,83.16816072594153,29727,0.9745978392596174,2311,0.02540216074038266,0,
0.0072499999999999995,7.249999999999999,3.159480364731176e-05,31.59480364731176,70.91420110841263,42569,326728.92279809114,2.349127299208344e-05,3.0548446070007035e-08,0,,,,40511,0.9514854027432476,32.31316545135169,68.25455082411905,2058,0.04851459725675231,22.001845675712385,82.15973226725878,40511,0.9514854027432476,2058,0.04851459725675231,0,
0.00775,7.75,3.159549823335568e-05,31.59549823335568,76.06330003039751,57122,589744.153177801,0.0004551661356395084,5.709198592552597e-07,0,,,,49459,0.8107819163989768,34.53767229529358,68.07468643126876,7663,0.18921808360102332,23.146545278686382,82.7716221008221,49459,0.8107819163989768,7663,0.18921808360102332,0,
0.00825,8.25,2.8767891806456225e-05,28.767891806456227,82.34619421320076,77467,1477145.533199468,0.0017426775272051326,1.454932312790433e-06,0,,,,50600,0.5588594125357114,36.44683155977186,68.29274784357473,26867,0.4411405874642888,22.70710727062512,85.07685779280746,50600,0.5588594125357114,26867,0.4411405874642888,0,
0.00875,8.75,2.7660711926266582e-05,27.660711926266583,85.25877597540926,77814,1885411.4441253839,0.0019019713676202226,1.699643056455981e-06,1,0.00013031384807988546,392.34326489999995,80.07511964,42557,0.4595418590343582,38.53339087311598,69.20614940854814,35256,0.5403278271175622,22.303432588993992,86.89246623549788,42557,0.4595418590343582,35256,0.5403278271175622,0,
0.009250000000000001,9.250000000000002,2.629145385714061e-05,26.29145385714061,85.5426550315622,56969,1647933.9352353197,0.0005441555933928979,4.556532901817217e-07,0,,,,24247,0.3224370218542956,40.72627322750988,69.94710510604054,32722,0.6775629781457044,22.4969458089972,86.37722920893773,24247,0.3224370218542956,32722,0.6775629781457044,0,
0.00975,9.75,2.7466087625906993e-05,27.466087625906994,83.77108802814026,20753,601888.2030966259,0.0001445574133860165,1.542732919782728e-08,2,0.0005481338617751889,369.87373935605495,82.0810913831788,7314,0.1958746590445193,43.04803314185689,70.49455257158051,13437,0.8035772070937054,25.22458046001548,84.25578048230267,7314,0.1958746590445193,13437,0.8035772070937054,0,
0.01025,10.25,3.2498021907140706e-05,32.4980219071407,82.12267953980779,1438,28379.358699716642,0.0,0.0,4,0.020340895812427876,408.0575189967313,85.00018278226227,774,0.2786520235067731,46.35322569042616,69.94628009298674,660,0.7010070806807993,28.369638850555386,82.95894740320678,774,0.2786520235067731,660,0.7010070806807993,0,
0.01075,10.75,,,,0,,,,0,,,,0,,,,0,,,,0,,0,,0,
0.01125,11.25,,,,0,,,,0,,,,0,,,,0,,,,0,,0,,0,
0.01175,11.75,,,,0,,,,0,,,,0,,,,0,,,,0,,0,,0,
0.01225,12.25,,,,0,,,,0,,,,0,,,,0,,,,0,,0,,0,
0.012750000000000001,12.750000000000002,,,,0,,,,0,,,,0,,,,0,,,,0,,0,,0,
0.013250000000000001,13.250000000000002,,,,0,,,,0,,,,0,,,,0,,,,0,,0,,0,
0.01375,13.75,,,,0,,,,0,,,,0,,,,0,,,,0,,0,,0,
0.01425,14.25,,,,0,,,,0,,,,0,,,,0,,,,0,,0,,0,
0.01475,14.75,,,,0,,,,0,,,,0,,,,0,,,,0,,0,,0,
