y_center,y_center_mm,D32_m,D32_um,Ux_mean,n_events,n_phys_sum,frac_events_d_lt_2um,frac_mass_d_lt_2um,n_events_user0,mass_fraction_user0,D32_um_user0,Ux_mean_user0,n_events_user1,mass_fraction_user1,D32_um_user1,Ux_mean_user1,n_events_user2,mass_fraction_user2,D32_um_user2,Ux_mean_user2,n_events_m10,mass_fraction_m10,n_events_m20,mass_fraction_m20,n_events_m2,mass_fraction_m2
0.00025,0.25,,,,0,,,,0,,,,0,,,,0,,,,0,,0,,0,
0.00075,0.75,,,,0,,,,0,,,,0,,,,0,,,,0,,0,,0,
0.00125,1.25,,,,0,,,,0,,,,0,,,,0,,,,0,,0,,0,
0.00175,1.75,,,,0,,,,0,,,,0,,,,0,,,,0,,0,,0,
0.0022500000000000003,2.2500000000000004,,,,0,,,,0,,,,0,,,,0,,,,0,,0,,0,
0.00275,2.75,1.8768596577679107e-05,18.76859657767911,84.37383488888709,1093,34566.212404213504,0.0,0.0,0,,,,1077,0.9958388972724213,18.80084922609088,84.26982297215591,16,0.004161102727578688,13.305848809834984,92.31901486652527,1077,0.9958388972724213,16,0.004161102727578688,0,
0.0032500000000000003,3.2500000000000004,1.9996572898048818e-05,19.996572898048818,82.84517248902978,18511,478882.37558638654,0.0,0.0,0,,,,18492,0.9997118835457257,19.99996698937131,82.81002390856283,19,0.00028811645427424126,12.58560282082878,102.70089278332512,18492,0.9997118835457257,19,0.00028811645427424126,0,
0.00375,3.75,2.119680217152737e-05,21.19680217152737,81.78451264594179,69859,1548378.4952686054,0.0,0.0,0,,,,69839,0.9999569507474323,21.1975023886188,81.77729932593132,20,4.304925256763913e-05,11.993908148202806,101.64106095548374,69839,0.9999569507474323,20,4.304925256763913e-05,0,
0.00425,4.25,2.223718261962479e-05,22.23718261962479,81.33781662597876,78679,1538739.933467788,1.2709871757393969e-05,1.2890447323223912e-08,0,,,,78643,0.9998998949128373,22.238802847783123,81.32064421609915,36,0.00010010508716290017,12.870815073528451,103.46143425275193,78643,0.9998998949128373,36,0.00010010508716290017,0,
0.004750000000000001,4.750000000000001,2.3326516566005496e-05,23.326516566005495,81.43093709322696,65358,1117077.910804967,0.0,0.0,0,,,,65330,0.9999235425367882,23.32767968461667,81.41456372812227,28,7.645746321200959e-05,14.11950302760497,106.06783533216365,65330,0.9999235425367882,28,7.645746321200959e-05,0,
0.0052499999999999995,5.249999999999999,2.4740360710263657e-05,24.74036071026366,81.12387513280268,59638,868230.1043534786,1.6767832589959423e-05,4.249824322279978e-09,0,,,,59611,0.999915734611889,24.74177161415618,81.10511707342155,27,8.426538811105822e-05,14.755599623643759,105.72406336282405,59611,0.999915734611889,27,8.426538811105822e-05,0,
0.00575,5.75,2.632446745162769e-05,26.32446745162769,80.48231572324954,53287,651071.438478156,0.0,0.0,0,,,,53273,0.9999643091091067,26.325105414290096,80.4781432078499,14,3.569089089312274e-05,15.678914194455047,99.37366386249114,53273,0.9999643091091067,14,3.569089089312274e-05,0,
0.00625,6.25,2.811284927451901e-05,28.11284927451901,79.60719306170394,49497,504133.7046595059,0.0,0.0,0,,,,49386,0.9961011541927759,28.134118359447626,79.54514486555475,111,0.0038988458072240417,23.561977354374424,86.42450530708787,49386,0.9961011541927759,111,0.0038988458072240417,0,
0.006750000000000001,6.750000000000001,2.8865819240307224e-05,28.865819240307225,81.82255727482384,50045,582599.8888704551,0.0002198021780397642,1.1358799235734497e-07,0,,,,45584,0.8707056496903348,30.05726427740288,78.37246835604647,4461,0.1292943503096651,22.78385806547007,88.34250989157294,45584,0.8707056496903348,4461,0.1292943503096651,0,
0.0072499999999999995,7.249999999999999,2.6304364963944927e-05,26.304364963944927,86.45551371222979,71826,1710209.280992481,0.0019352323671094033,1.6467244261804006e-06,1,0.00010147185173650827,342.050945,84.75950241,39380,0.4651666447434307,32.250851510568666,77.12273631994331,32445,0.5347318834048326,22.665029660306963,88.18854749252034,39380,0.4651666447434307,32445,0.5347318834048326,0,
0.00775,7.75,2.471393565179583e-05,24.71393565179583,87.29729074517377,101690,3374396.592728706,0.0024092831153505754,1.8865425294452345e-06,63,0.004167042427612682,345.1202424864328,83.76633740563759,27768,0.21197014090052566,34.65753007982444,75.89359427549478,73859,0.7838628166718614,22.829986237440377,87.83415276211078,27768,0.21197014090052566,73859,0.7838628166718614,0,
0.00825,8.25,2.571847190496194e-05,25.718471904961937,85.13814310153316,69716,2407497.3056092532,0.0007745711171036778,4.0412188083714356e-07,416,0.033462811142061386,343.76572054391073,82.71689906421386,11982,0.10970375470993274,37.015760617784444,74.72284808628402,57318,0.856833434148006,23.919520962023054,85.37362797189283,11982,0.10970375470993274,57318,0.856833434148006,0,
0.00875,8.75,3.0107319921771266e-05,30.107319921771268,83.39754431262865,6398,169711.2760388847,0.00015629884338855892,1.2314754947481336e-08,110,0.09432549207997029,353.6596759546546,82.64115493497624,2172,0.19624939890925533,40.73486352611815,72.98513999954126,4116,0.7094251090107744,25.219452510976765,83.8704848236028,2172,0.19624939890925533,4116,0.7094251090107744,0,
0.009250000000000001,9.250000000000002,3.743558771886688e-05,37.435587718866884,82.15248458005165,291,4592.595849954317,0.0,0.0,8,0.16436471672151742,372.8602111095983,82.62100244010892,187,0.397547533533449,45.12160767057086,70.82176725457273,96,0.43808774974503367,25.089286070115723,83.45309099072938,187,0.397547533533449,96,0.43808774974503367,0,
0.00975,9.75,,,,0,,,,0,,,,0,,,,0,,,,0,,0,,0,
0.01025,10.25,,,,0,,,,0,,,,0,,,,0,,,,0,,0,,0,
0.01075,10.75,,,,0,,,,0,,,,0,,,,0,,,,0,,0,,0,
0.01125,11.25,,,,0,,,,0,,,,0,,,,0,,,,0,,0,,0,
0.01175,11.75,,,,0,,,,0,,,,0,,,,0,,,,0,,0,,0,
0.01225,12.25,,,,0,,,,0,,,,0,,,,0,,,,0,,0,,0,
0.012750000000000001,12.750000000000002,,,,0,,,,0,,,,0,,,,0,,,,0,,0,,0,
0.013250000000000001,13.250000000000002,,,,0,,,,0,,,,0,,,,0,,,,0,,0,,0,
0.01375,13.75,,,,0,,,,0,,,,0,,,,0,,,,0,,0,,0,
0.01425,14.25,,,,0,,,,0,,,,0,,,,0,,,,0,,0,,0,
0.01475,14.75,,,,0,,,,0,,,,0,,,,0,,,,0,,0,,0,
